8
Properties=species:S:1:pos:R:3:forces:R:3:energies:R:1 energy=4.952032444265896 free_energy=4.952032444265896 pbc="F F F"
Au       1.14420237       0.30425470       0.28496952       0.00024786       0.00002662       0.00016425       0.50135958
Au       3.76907378       0.61325586       0.62560509      -0.00013863      -0.00030845      -0.00025925       0.68364378
Au       0.00706607       2.70877743       0.77376905       0.00017554       0.00027791      -0.00035165       0.58020879
Au      -0.01219417       0.76741873       2.68558668      -0.00009860      -0.00044990       0.00009890       0.58017179
Au       2.36976790       2.54897930      -0.43507603       0.00000891      -0.00021290       0.00012756       0.67990232
Au       2.33948922      -0.46332623       2.53018973       0.00004625       0.00028858      -0.00015091       0.67991221
Au       0.12047010       3.27465150       3.29104936       0.00038030      -0.00016425       0.00007804       0.81882815
Au       2.28899865       2.20259583       2.22499239      -0.00062161       0.00054239       0.00029306       0.42800583
